41
mbtca_wat_aa_agi_bal_ajm_abi.log	Energy:    -609.2764551
C          1.71114       -1.14391       -0.25657
C          0.18396       -1.36060       -0.34500
O          2.39072       -2.20411        0.14063
C         -0.24247       -2.38619        0.70925
C         -0.11640       -1.86892       -1.75627
C         -0.51511        0.00326       -0.04577
C         -2.02028       -0.20345        0.07534
C         -0.25746        1.07911       -1.10974
H         -0.13153        0.36571        0.95195
H         -1.03238        1.04906       -1.91130
H          0.71800        0.87700       -1.63258
C         -0.15894        2.44131       -0.49389
O         -1.08551        3.28789       -1.03767
O         -2.44531        0.07422        1.30725
O         -2.77975       -0.56004       -0.81573
H          0.39693       -3.28353        0.66737
H         -1.27485       -2.72314        0.56008
H         -0.16135       -1.99641        1.73174
H          0.25493       -2.89230       -1.90067
H          0.33203       -1.24483       -2.53740
H         -1.20290       -1.88671       -1.94302
H          3.50005       -2.02571        0.23722
H         -3.51721       -0.03959        1.47008
H         -1.04145        4.21124       -0.66096
O          2.28071       -0.09219       -0.55009
O          0.61089        2.84765        0.35179
O          4.80978        0.69073        0.22008
H          3.97245        0.73609       -0.29726
H          4.71654        1.41098        0.87693
H         -6.06340       -0.94668       -1.12503
O         -5.44328       -0.72917       -0.44100
H         -4.54418       -0.73502       -0.84657
H          5.27643       -1.52477       -0.34675
O          4.87462       -1.72841        0.51567
H          4.81126       -0.80121        0.94993
H         -5.40939        0.45526        1.14006
O         -4.98515       -0.13467        1.80335
H         -5.24061       -1.03432        1.49874
H          2.58519        2.95247        1.19580
O          2.93835        2.06780        1.07900
H          2.22004        1.55507        0.67121
