36
org_wat_bn_ayk_bbf_adx_bvp.log	Energy:    -466.8534327
C          0.55961       -2.03877        0.73523
C          1.83593       -2.60672        0.10537
C          2.66218       -1.56836       -0.66046
C          3.23113       -0.52573        0.26316
C          2.45267        0.82244        0.18506
C         -0.35012       -1.42496       -0.29261
O         -1.55035       -2.11283       -0.26637
O         -2.40659       -1.56798       -1.25852
H         -3.29225       -1.48448       -0.67902
H          0.03222       -2.84189        1.30030
H          2.45653       -3.06862        0.90470
H          0.80312       -1.25808        1.49566
H          1.57471       -3.43664       -0.58715
H          3.50204       -2.07579       -1.18901
H          2.04761       -1.10275       -1.46925
O         -0.14324       -0.48644       -1.03027
O          4.18792       -0.64024        0.97263
O          2.51267        1.63446       -0.69974
O          1.64117        0.92073        1.29841
O          0.93461        2.15069        1.26958
H         -0.05328        1.78935        1.27232
O         -1.64413        1.88960        0.79651
H         -1.66350        1.51300       -0.21218
H         -1.84014        2.82198        0.68330
H         -1.65892        0.36886       -1.81383
O         -1.72754        1.34644       -1.67506
H         -0.82502        1.70711       -1.92869
H          0.81330        2.74881       -0.66093
O          0.48081        2.81971       -1.58349
H          1.25683        2.65485       -2.13081
H         -4.35657       -1.13749        1.13252
O         -4.59506       -1.03914        0.19162
H         -4.70600       -0.07563        0.07940
H         -2.96838        1.08556        1.50464
O         -3.84518        0.66798        1.71814
H         -4.23160        1.18058        2.41580
