36
org_wat_ah_adf_agm_bbf_ava.log	Energy:    -468.3033121
C          2.32150        0.78729       -1.24435
C          3.38090        0.41281       -0.20506
C          2.83807       -0.20159        1.09017
C          2.20859       -1.55255        0.90058
C          0.73309       -1.43942        0.40957
C          1.21332        1.64240       -0.69690
O          0.29440        1.81791       -1.72467
O         -0.84369        2.51056       -1.25070
H         -1.55474        1.72577       -1.31998
H          2.80575        1.31268       -2.10079
H          4.11103       -0.28104       -0.67499
H          1.87484       -0.12950       -1.70943
H          3.96043        1.32341        0.06871
H          3.67258       -0.29786        1.82377
H          2.11384        0.50679        1.56867
O          1.04991        2.09611        0.41301
O          2.70085       -2.61905        1.12594
O         -0.19959       -1.00644        1.03968
O          0.66349       -1.84008       -0.90813
O         -0.54148       -1.40990       -1.49447
H         -1.17502       -2.26348       -1.41464
O         -2.67727        0.87543        1.77079
H         -2.97854        1.76570        2.00566
H         -1.68968        0.94487        1.83095
H         -0.82961        2.76116        0.68421
O         -1.02034        2.63423        1.64674
H         -0.16567        2.74876        2.07360
H         -1.63373       -0.23313       -0.46876
O         -2.35472        0.35674       -0.80800
H         -2.89020        0.56590        0.00575
H         -2.17361       -1.37773        1.42805
O         -3.00050       -1.36697        0.92475
H         -3.62730       -0.86033        1.46198
H         -3.11686       -2.63968       -0.49086
O         -2.80157       -2.31317       -1.35321
H         -3.03221       -1.34886       -1.35000
